<?xml version="1.0"?>
<VTKFile type="UnstructuredGrid" version="0.1">
<UnstructuredGrid>
<Piece NumberOfPoints="4" NumberOfCells="1">
<Points>
<DataArray type="Float64" NumberOfComponents="3">
0 0 0
1 0 0
0 1 0
0.5 0.5 1
</DataArray>
</Points>
<Cells>
<DataArray type="Int32" Name="connectivity">
0 1 2 3
 </DataArray>
<DataArray type="Int32" Name="offsets">
4
</DataArray>
<DataArray type="Int32" Name="types">
10
</DataArray>
</Cells>
<PointData>
<DataArray type="Float64" Name="Polynomial" format="ascii">
  1 2 2 3
</DataArray>
</PointData>
</Piece>
</UnstructuredGrid>
</VTKFile>
